ITEM: TIMESTEP
14000
ITEM: NUMBER OF SURFS
180
ITEM: BOX BOUNDS oo ro pp
-0.5 0.5
0 0.4
-0.5 0.5
ITEM: SURFS id v1x v1y v2x v2y f_2[1] f_2[2] f_2[3] f_2[4] f_2[5] 
1            0       0.1524    0.0026597      0.15238       5569.7       17.116       5.4518    -0.047575       20.498 
17     0.042007       0.1465     0.044557      0.14574       2662.5       7.3027        3.158     -0.93545       8.9273 
33      0.08076      0.12924     0.083003      0.12781       1137.2       2.7952       1.4179      -0.9033       3.5857 
49      0.11326      0.10198      0.11502     0.099983        430.1       1.1093      0.45282     -0.51182       1.4997 
65      0.13698     0.066808      0.13812     0.064407       339.16        1.253     0.076261     -0.15988       1.6103 
81      0.15008     0.026464      0.15052     0.023841       478.82        2.159   -0.0077484     0.046302       2.6473 
97     -0.15157      0.01593     -0.15126     0.018573        43794        173.3      0.31676       2.7802       206.98 
113      -0.1413      0.05709     -0.14028     0.059547        38371       151.05       3.0042       7.2528       180.44 
129     -0.12009     0.093827     -0.11844     0.095908        29776       114.19       6.6433       8.3518       135.95 
145    -0.089578      0.12329    -0.087413      0.12484        20311       74.271       8.6735       6.1868       88.246 
161    -0.052124      0.14321    -0.049617       0.1441        12336       42.085       8.3345       2.9514       49.806 
177    -0.010631      0.15203    -0.007976      0.15219       6624.9       20.894        6.238      0.38153       25.032 
2    0.0026597      0.15238    0.0053187      0.15231       5385.6       16.321       5.4195     -0.14192        19.59 
18     0.044557      0.14574     0.047094      0.14494       2577.6       6.8989       3.0187     -0.95178       8.4633 
34     0.083003      0.12781     0.085221      0.12635         1067       2.5983       1.3352     -0.88378       3.3397 
50      0.11502     0.099983      0.11675     0.097961       419.91       1.0645      0.42371      -0.4961       1.4557 
66      0.13812     0.064407      0.13922     0.061987       338.28        1.317     0.059821     -0.13127       1.7047 
82      0.15052     0.023841      0.15092      0.02121       500.62       2.2116   -0.0043406     0.029043       2.6947 
98     -0.15126     0.018573     -0.15092      0.02121        43147       172.25      0.36513       2.7735       206.51 
114     -0.14028     0.059547     -0.13922     0.061987        37657       149.22       3.2987       7.5864       178.48 
130     -0.11844     0.095908     -0.11675     0.097961        28947       111.25       6.8214        8.275        132.7 
146    -0.087413      0.12484    -0.085221      0.12635        19725       72.064       8.9836       6.1743       85.478 
162    -0.049617       0.1441    -0.047094      0.14494        11931       40.523       8.2544       2.7619       48.015 
178    -0.007976      0.15219   -0.0053187      0.15231       6337.9       19.898       6.1034      0.26648       23.828 
3    0.0053187      0.15231     0.007976      0.15219         5140       15.553       5.2432     -0.22892       18.637 
19     0.047094      0.14494     0.049617       0.1441       2397.2       6.4872       2.8759     -0.96225       7.9763 
35     0.085221      0.12635     0.087413      0.12484       996.49       2.4544       1.2605     -0.86632        3.167 
51      0.11675     0.097961      0.11844     0.095908       391.87       1.0141      0.38742     -0.46998       1.3877 
67      0.13922     0.061987      0.14028     0.059547       366.68       1.3965     0.049821     -0.11458       1.7717 
83      0.15092      0.02121      0.15126     0.018573       527.73       2.2612   -0.0076013     0.057738       2.7607 
99     -0.15092      0.02121     -0.15052     0.023841        43231       171.78      0.47699       3.1916       205.67 
115     -0.13922     0.061987     -0.13812     0.064407        37289          147       3.4769       7.6293       175.87 
131     -0.11675     0.097961     -0.11502     0.099983        28159       108.47       7.0228       8.2227       129.48 
147    -0.085221      0.12635    -0.083003      0.12781        19201       69.759       8.9029       5.8927       82.795 
163    -0.047094      0.14494    -0.044557      0.14574        11455       38.703       8.1773       2.5783       45.851 
179   -0.0053187      0.15231   -0.0026597      0.15238       6125.8       19.103       5.8385      0.15289       22.822 
4     0.007976      0.15219     0.010631      0.15203       4904.5        14.76       5.0562     -0.30925       17.771 
20     0.049617       0.1441     0.052124      0.14321       2312.8       6.0909       2.7598     -0.97728       7.5577 
36     0.087413      0.12484     0.089578      0.12329       985.57       2.3683       1.2031     -0.85818        3.045 
52      0.11844     0.095908      0.12009     0.093827       366.48      0.98998      0.33798      -0.4249       1.3383 
68      0.14028     0.059547       0.1413      0.05709        365.6        1.409     0.037698    -0.091011       1.8107 
84      0.15126     0.018573      0.15157      0.01593       519.22       2.2986   -0.0043543     0.038217       2.8087 
100     -0.15052     0.023841     -0.15008     0.026464        42829       170.36      0.60009        3.586       203.64 
116     -0.13812     0.064407     -0.13698     0.066808        36932       145.25       3.7214       7.8022       173.57 
132     -0.11502     0.099983     -0.11326      0.10198        27647       106.26       7.1471       8.0783       126.59 
148    -0.083003      0.12781     -0.08076      0.12924        18594       67.545       8.9922       5.7287       80.174 
164    -0.044557      0.14574    -0.042007       0.1465        10980       37.265       7.9907        2.367       44.209 
180   -0.0026597      0.15238            0       0.1524       5857.9       18.074       5.6714     0.049492       21.591 
5     0.010631      0.15203     0.013283      0.15182       4715.2       14.096       4.9438     -0.38909        16.97 
21     0.052124      0.14321     0.054615      0.14228       2175.1        5.774       2.6313     -0.98379       7.1317 
37     0.089578      0.12329     0.091717      0.12171       898.06       2.1727       1.1304     -0.83642         2.81 
53      0.12009     0.093827      0.12171     0.091717       349.47      0.97555      0.31984     -0.41682       1.3323 
69       0.1413      0.05709      0.14228     0.054615       376.53       1.4998     0.030699    -0.077935        1.896 
85      0.15157      0.01593      0.15182     0.013283       518.45       2.3446   -0.0013136     0.013642        2.834 
101     -0.15008     0.026464      -0.1496     0.029079        42478        169.4      0.78407       4.2304       202.88 
117     -0.13698     0.066808     -0.13579     0.069188        36589       143.07       3.9508        7.924       170.96 
133     -0.11326      0.10198     -0.11146      0.10394        27305       104.04       7.4564       8.1373       123.89 
149     -0.08076      0.12924    -0.078492      0.13063        18061       65.032        8.841       5.4177       77.185 
165    -0.042007       0.1465    -0.039444      0.14721        10771       35.974       8.0872       2.2428       42.583 
6     0.013283      0.15182      0.01593      0.15157       4512.4       13.404       4.7494     -0.45731       16.128 
22     0.054615      0.14228      0.05709       0.1413       2127.2       5.5703       2.5872      -1.0191          6.9 
38     0.091717      0.12171     0.093827      0.12009       820.55        2.009       1.0037     -0.77014       2.6227 
54      0.12171     0.091717      0.12329     0.089578       364.25      0.97775       0.2996     -0.40488        1.336 
70      0.14228     0.054615      0.14321     0.052124       359.85       1.5227     0.020398    -0.054556       1.9303 
86      0.15182     0.013283      0.15203     0.010631       512.52       2.3074   -0.0039424     0.050093       2.7897 
102      -0.1496     0.029079     -0.14907     0.031686        42214       168.39      0.84657        4.161        201.5 
118     -0.13579     0.069188     -0.13456     0.071547        35608       140.48       4.1649       8.0008       168.05 
134     -0.11146      0.10394     -0.10963      0.10587        26488       101.12       7.4741        7.876       120.46 
150    -0.078492      0.13063      -0.0762      0.13198        17638       63.084       8.8664       5.2227        74.68 
166    -0.039444      0.14721    -0.036869      0.14787        10267       34.431       7.7508       2.0045       40.797 
7      0.01593      0.15157     0.018573      0.15126       4371.7       12.749       4.6444     -0.52916       15.346 
23      0.05709       0.1413     0.059547      0.14028       1964.6       5.1505       2.4029     -0.99531       6.3847 
39     0.093827      0.12009     0.095908      0.11844        790.9       1.9055      0.97563     -0.77605        2.506 
55      0.12329     0.089578      0.12484     0.087413       342.67      0.97199      0.27129     -0.38034         1.31 
71      0.14321     0.052124       0.1441     0.049617       391.45       1.6064     0.019309    -0.054528       2.0143 
87      0.15203     0.010631      0.15219     0.007976       526.28       2.3668    -0.001371     0.022416       2.8867 
103     -0.14907     0.031686     -0.14849     0.034283        42254       167.43       1.0714       4.8327       200.38 
119     -0.13456     0.071547     -0.13329     0.073885        35092       138.46       4.4072       8.1171       165.85 
135     -0.10963      0.10587     -0.10776      0.10776        25930       98.799       7.5766         7.71       117.66 
151      -0.0762      0.13198    -0.073885      0.13329        17105       61.091       9.0371       5.1129       72.434 
167    -0.036869      0.14787    -0.034283      0.14849       9795.9       33.005        7.589       1.8219       39.281 
8     0.018573      0.15126      0.02121      0.15092       4126.2       12.034       4.4636     -0.58765       14.545 
24     0.059547      0.14028     0.061987      0.13922       1825.1       4.8678       2.2763     -0.98977        6.065 
40     0.095908      0.11844     0.097961      0.11675          745        1.807      0.90603     -0.74688       2.3873 
56      0.12484     0.087413      0.12635     0.085221       337.48       1.0011      0.24653      -0.3587        1.344 
72       0.1441     0.049617      0.14494     0.047094       396.77       1.6361    0.0032155   -0.0096102        2.056 
88      0.15219     0.007976      0.15231    0.0053187       523.84       2.3444   -0.0011916     0.027292       2.8433 
104     -0.14849     0.034283     -0.14787     0.036869        41810       165.94       1.2276       5.1132       198.33 
120     -0.13329     0.073885     -0.13198       0.0762        34521       136.04       4.6886        8.287       162.71 
136     -0.10776      0.10776     -0.10587      0.10963        25270       96.132       7.8186       7.6833        114.6 
152    -0.073885      0.13329    -0.071547      0.13456        16474       58.626       8.8681        4.815       69.493 
168    -0.034283      0.14849    -0.031686      0.14907       9341.4       31.459        7.517       1.6665       37.612 
9      0.02121      0.15092     0.023841      0.15052       3942.6       11.459       4.2993     -0.64253        13.83 
25     0.061987      0.13922     0.064407      0.13812       1762.6       4.5728       2.1747     -0.99107       5.6787 
41     0.097961      0.11675     0.099983      0.11502       686.82        1.649      0.82777     -0.70698        2.189 
57      0.12635     0.085221      0.12781     0.083003       319.33      0.98122      0.20618      -0.3115       1.3173 
73      0.14494     0.047094      0.14574     0.044557       396.57       1.6966    0.0054687    -0.017345         2.12 
89      0.15231    0.0053187      0.15238    0.0026597       539.86       2.3915   -0.0010967      0.04188        2.885 
105     -0.14787     0.036869     -0.14721     0.039444        41303       164.89       1.3125        5.075       197.51 
121     -0.13198       0.0762     -0.13063     0.078492        33919       133.34       4.9069       8.3302       159.38 
137     -0.10587      0.10963     -0.10394      0.11146        24919       93.647       8.0382       7.6279       111.57 
153    -0.071547      0.13456    -0.069188      0.13579        16019        56.91       8.8778       4.6215       67.458 
169    -0.031686      0.14907    -0.029079       0.1496       9177.3       30.074       7.4771       1.5212        35.69 
10     0.023841      0.15052     0.026464      0.15008       3796.4       10.837       4.1574     -0.69571       13.092 
26     0.064407      0.13812     0.066808      0.13698       1674.3       4.2999       2.0853     -0.99466       5.3633 
42     0.099983      0.11502      0.10198      0.11326       642.15       1.5608      0.77547     -0.68608       2.0597 
58      0.12781     0.083003      0.12924      0.08076        324.1       1.0273      0.19808     -0.31093        1.376 
74      0.14574     0.044557       0.1465     0.042007       419.79       1.7909    -0.006438     0.021734       2.2207 
90      0.15238    0.0026597       0.1524            0       544.42       2.4393   0.00012143    -0.013915        2.923 
106     -0.14721     0.039444      -0.1465     0.042007        40698       163.44       1.5655       5.6448        196.1 
122     -0.13063     0.078492     -0.12924      0.08076        33420       131.34       5.0816       8.2924       157.04 
138     -0.10394      0.11146     -0.10198      0.11326        24093       91.222        8.101       7.4232       108.62 
154    -0.069188      0.13579    -0.066808      0.13698        15593        54.58       8.7602       4.3677       64.636 
170    -0.029079       0.1496    -0.026464      0.15008         8956       29.003       7.3181       1.3563       34.379 
11     0.026464      0.15008     0.029079       0.1496       3587.3        10.22       4.0413       -0.749        12.39 
27     0.066808      0.13698     0.069188      0.13579       1585.6       4.1273       1.9827     -0.98854        5.158 
43      0.10198      0.11326      0.10394      0.11146          633        1.489      0.74483     -0.68251        1.989 
59      0.12924      0.08076      0.13063     0.078492       322.86       1.0106       0.1734     -0.28296       1.3427 
75       0.1465     0.042007      0.14721     0.039444       430.33       1.8322    -0.002688    0.0096927       2.2623 
91      -0.1524            0     -0.15238    0.0026597        43499       174.91    0.0032818      0.37607       209.68 
107      -0.1465     0.042007     -0.14574     0.044557        40546       161.57       1.7363       5.8616       193.46 
123     -0.12924      0.08076     -0.12781     0.083003        32880       128.79       5.3174       8.3467        153.9 
139     -0.10198      0.11326    -0.099983      0.11502        23632       88.421       8.2375        7.288       105.24 
155    -0.066808      0.13698    -0.064407      0.13812        15161       53.062       8.9059       4.2479       62.905 
171    -0.026464      0.15008    -0.023841      0.15052       8462.3       27.699       7.0478       1.1794        32.92 
12     0.029079       0.1496     0.031686      0.14907         3462        9.681       3.9236     -0.79827       11.718 
28     0.069188      0.13579     0.071547      0.13456       1515.2       3.8193       1.8721     -0.97457        4.848 
44      0.10394      0.11146      0.10587      0.10963       592.29       1.4388      0.68847     -0.65333        1.916 
60      0.13063     0.078492      0.13198       0.0762       315.87       1.0444      0.16249     -0.27586       1.3903 
76      0.14721     0.039444      0.14787     0.036869       439.73       1.9158   -0.0037427     0.014472       2.3557 
92     -0.15238    0.0026597     -0.15231    0.0053187        43768       174.93     0.017041      0.65076        209.6 
108     -0.14574     0.044557     -0.14494     0.047094        40412        160.2       1.9611         6.22       191.79 
124     -0.12781     0.083003     -0.12635     0.085221        32581       126.67       5.7245       8.6487       151.46 
140    -0.099983      0.11502    -0.097961      0.11675        23265       86.419       8.5286       7.2841       102.84 
156    -0.064407      0.13812    -0.061987      0.13922        14731        51.24       8.8253       4.0219       60.624 
172    -0.023841      0.15052     -0.02121      0.15092       8242.2       26.711       7.0932       1.0601       31.758 
13     0.031686      0.14907     0.034283      0.14849         3290        9.233       3.7478     -0.83087       11.259 
29     0.071547      0.13456     0.073885      0.13329       1401.1       3.5695       1.7631     -0.95728       4.5323 
45      0.10587      0.10963      0.10776      0.10776       543.68       1.3209      0.63091        -0.62       1.7783 
61      0.13198       0.0762      0.13329     0.073885        333.9       1.1141      0.13655     -0.24135       1.4683 
77      0.14787     0.036869      0.14849     0.034283       470.05       1.9901   -0.0077779     0.032397         2.45 
93     -0.15231    0.0053187     -0.15219     0.007976        43613       174.83     0.044182       1.0119       209.58 
109     -0.14494     0.047094      -0.1441     0.049617        40021       158.45       2.1621       6.4619       189.77 
125     -0.12635     0.085221     -0.12484     0.087413        31606       123.82       5.7512       8.3681       147.98 
141    -0.097961      0.11675    -0.095908      0.11844        22458       83.902       8.5554       7.0525       100.11 
157    -0.061987      0.13922    -0.059547      0.14028        14099       48.947       8.6341       3.7542        58.01 
173     -0.02121      0.15092    -0.018573      0.15126       7857.7       25.433       6.9117      0.90995       30.329 
14     0.034283      0.14849     0.036869      0.14787       3108.7       8.6751        3.598     -0.86381       10.552 
30     0.073885      0.13329       0.0762      0.13198       1351.8       3.3742       1.6816     -0.95138        4.288 
46      0.10776      0.10776      0.10963      0.10587       497.54       1.2514      0.56939     -0.57941        1.682 
62      0.13329     0.073885      0.13456     0.071547        308.1       1.1267      0.12674     -0.23342        1.476 
78      0.14849     0.034283      0.14907     0.031686       465.71       2.0413   -0.0074452     0.033583       2.5097 
94     -0.15219     0.007976     -0.15203     0.010631        43233       174.42     0.077751       1.2712        209.1 
110      -0.1441     0.049617     -0.14321     0.052124        39357       156.55       2.3445       6.6206       187.39 
126     -0.12484     0.087413     -0.12329     0.089578        30873       121.48       6.0684       8.5076       145.45 
142    -0.095908      0.11844    -0.093827      0.12009        21992        81.22       8.5132       6.7717       96.381 
158    -0.059547      0.14028     -0.05709       0.1413        13653       47.497       8.6508       3.5833       56.316 
174    -0.018573      0.15126     -0.01593      0.15157       7432.8       24.375       6.5637      0.74784       29.156 
15     0.036869      0.14787     0.039444      0.14721         2940       8.1686       3.3988     -0.87899       9.9347 
31       0.0762      0.13198     0.078492      0.13063       1282.5       3.1763       1.5949     -0.93945       4.0393 
47      0.10963      0.10587      0.11146      0.10394       495.86       1.1961      0.55006     -0.57965       1.6167 
63      0.13456     0.071547      0.13579     0.069188        331.3       1.1913     0.097748     -0.18777       1.5453 
79      0.14907     0.031686       0.1496     0.029079       476.51       2.0817   -0.0027688     0.013609        2.557 
95     -0.15203     0.010631     -0.15182     0.013283        43404       173.81      0.13454       1.7095       208.16 
111     -0.14321     0.052124     -0.14228     0.054615        39066       154.93       2.5211       6.7429       185.35 
127     -0.12329     0.089578     -0.12171     0.091717        30427       118.38       6.2626       8.4635       141.53 
143    -0.093827      0.12009    -0.091717      0.12171        21392       79.233       8.6374       6.6277        94.12 
159     -0.05709       0.1413    -0.054615      0.14228        13226       45.424       8.6033       3.3889       53.755 
175     -0.01593      0.15157    -0.013283      0.15182       7249.4        23.24       6.5477      0.63047       27.783 
16     0.039444      0.14721     0.042007       0.1465       2821.2       7.7674       3.2858     -0.91123       9.5147 
32     0.078492      0.13063      0.08076      0.12924       1195.4       2.9726       1.5008     -0.91968        3.773 
48      0.11146      0.10394      0.11326      0.10198       473.19       1.1515      0.50812     -0.55451        1.559 
64      0.13579     0.069188      0.13698     0.066808       320.06       1.2056     0.093808     -0.18815         1.58 
80       0.1496     0.029079      0.15008     0.026464       479.49       2.0931    -0.009306     0.050211        2.556 
96     -0.15182     0.013283     -0.15157      0.01593        43270       173.72      0.21562       2.2393       208.46 
112     -0.14228     0.054615      -0.1413      0.05709        38821       153.27       2.7733       7.0405       183.34 
128     -0.12171     0.091717     -0.12009     0.093827        30066        116.4       6.4037       8.3455       138.96 
144    -0.091717      0.12171    -0.089578      0.12329        20743       76.674       8.6983       6.4364       91.162 
160    -0.054615      0.14228    -0.052124      0.14321        12747       43.833       8.5286       3.1887       51.884 
176    -0.013283      0.15182    -0.010631      0.15203         7017       22.114       6.5147      0.51272       26.393 
